VARIABLES = X, Y, u, v, solid
ZONE I= 420 , J= 160, F=POINT 
    0     0       0.0396545       0.0000039     1
    1     0       0.0396633       0.0000064     1
    2     0       0.0396768       0.0000052     1
    3     0       0.0396907       0.0000141     1
    4     0       0.0397152       0.0000153     1
    5     0       0.0397497       0.0000153     1
    6     0       0.0397849       0.0000198     1
    7     0       0.0398260       0.0000252     1
    8     0       0.0398773       0.0000248     1
    9     0       0.0399319       0.0000281     1
   10     0       0.0399902       0.0000340     1
   11     0       0.0400612       0.0000358     1
   12     0       0.0401367       0.0000362     1
   13     0       0.0402142       0.0000432     1
   14     0       0.0403023       0.0000467     1
   15     0       0.0403994       0.0000469     1
   16     0       0.0404973       0.0000518     1
   17     0       0.0406047       0.0000576     1
   18     0       0.0407236       0.0000576     1
   19     0       0.0408428       0.0000607     1
   20     0       0.0409687       0.0000680     1
   21     0       0.0411090       0.0000702     1
   22     0       0.0412522       0.0000712     1
   23     0       0.0413986       0.0000781     1
   24     0       0.0415618       0.0000827     1
   25     0       0.0417314       0.0000832     1
   26     0       0.0418997       0.0000884     1
   27     0       0.0420840       0.0000953     1
   28     0       0.0422809       0.0000965     1
   29     0       0.0424744       0.0001001     1
   30     0       0.0426794       0.0001078     1
   31     0       0.0429050       0.0001107     1
   32     0       0.0431271       0.0001131     1
   33     0       0.0433528       0.0001199     1
   34     0       0.0436053       0.0001242     1
   35     0       0.0438605       0.0001271     1
   36     0       0.0441112       0.0001338     1
   37     0       0.0443888       0.0001377     1
   38     0       0.0446786       0.0001415     1
   39     0       0.0449583       0.0001490     1
   40     0       0.0452603       0.0001519     1
   41     0       0.0455823       0.0001543     1
   42     0       0.0458955       0.0001646     1
   43     0       0.0462229       0.0001685     1
   44     0       0.0465748       0.0001676     1
   45     0       0.0469243       0.0001793     1
   46     0       0.0472810       0.0001870     1
   47     0       0.0476617       0.0001837     1
   48     0       0.0480462       0.0001917     1
   49     0       0.0484362       0.0002048     1
   50     0       0.0488467       0.0002028     1
   51     0       0.0492652       0.0002039     1
   52     0       0.0496890       0.0002187     1
   53     0       0.0501293       0.0002246     1
   54     0       0.0505810       0.0002203     1
   55     0       0.0510364       0.0002282     1
   56     0       0.0515070       0.0002422     1
   57     0       0.0519906       0.0002415     1
   58     0       0.0524787       0.0002390     1
   59     0       0.0529768       0.0002524     1
   60     0       0.0534922       0.0002641     1
   61     0       0.0540135       0.0002572     1
   62     0       0.0545377       0.0002565     1
   63     0       0.0550768       0.0002750     1
   64     0       0.0556309       0.0002830     1
   65     0       0.0561854       0.0002698     1
   66     0       0.0567410       0.0002711     1
   67     0       0.0573156       0.0002965     1
   68     0       0.0579040       0.0003015     1
   69     0       0.0584863       0.0002782     1
   70     0       0.0590646       0.0002792     1
   71     0       0.0596657       0.0003117     1
   72     0       0.0602815       0.0003168     1
   73     0       0.0608845       0.0002843     1
   74     0       0.0614761       0.0002814     1
   75     0       0.0620930       0.0003204     1
   76     0       0.0627263       0.0003268     1
   77     0       0.0633420       0.0002882     1
   78     0       0.0639396       0.0002831     1
   79     0       0.0645612       0.0003218     1
   80     0       0.0651957       0.0003227     1
   81     0       0.0658099       0.0002896     1
   82     0       0.0664108       0.0002907     1
   83     0       0.0670242       0.0003098     1
   84     0       0.0676388       0.0003062     1
   85     0       0.0682418       0.0002924     1
   86     0       0.0688378       0.0002924     1
   87     0       0.0694272       0.0002866     1
   88     0       0.0700069       0.0002841     1
   89     0       0.0706005       0.0003098     1
   90     0       0.0711702       0.0002580     1
   91     0       0.0717047       0.0002515     1
   92     0       0.0722829       0.0003291     1
   93     0       0.0728337       0.0002272     1
   94     0       0.0733288       0.0002367     1
   95     0       0.0738833       0.0003238     1
   96     0       0.0743967       0.0001896     1
   97     0       0.0748658       0.0002477     1
   98     0       0.0753887       0.0002894     1
   99     0       0.0758583       0.0001714     1
  100     0       0.0763048       0.0002488     1
  101     0       0.0767842       0.0002426     1
  102     0       0.0772159       0.0001801     1
  103     0       0.0776398       0.0002270     1
  104     0       0.0780702       0.0002066     1
  105     0       0.0784698       0.0001851     1
  106     0       0.0788655       0.0002015     1
  107     0       0.0792541       0.0001850     1
  108     0       0.0796224       0.0001772     1
  109     0       0.0799866       0.0001805     1
  110     0       0.0803407       0.0001679     1
  111     0       0.0806799       0.0001647     1
  112     0       0.0810129       0.0001638     1
  113     0       0.0813386       0.0001552     1
  114     0       0.0816516       0.0001511     1
  115     0       0.0819587       0.0001511     1
  116     0       0.0822596       0.0001449     1
  117     0       0.0825516       0.0001392     1
  118     0       0.0828359       0.0001413     1
  119     0       0.0831170       0.0001372     1
  120     0       0.0833908       0.0001301     1
  121     0       0.0836596       0.0001328     1
  122     0       0.0839254       0.0001314     1
  123     0       0.0841864       0.0001243     1
  124     0       0.0844442       0.0001256     1
  125     0       0.0846997       0.0001265     1
  126     0       0.0849516       0.0001223     1
  127     0       0.0852029       0.0001218     1
  128     0       0.0854536       0.0001227     1
  129     0       0.0857013       0.0001219     1
  130     0       0.0859494       0.0001213     1
  131     0       0.0862003       0.0001210     1
  132     0       0.0864494       0.0001226     1
  133     0       0.0866991       0.0001235     1
  134     0       0.0869531       0.0001233     1
  135     0       0.0872096       0.0001247     1
  136     0       0.0874662       0.0001275     1
  137     0       0.0877273       0.0001283     1
  138     0       0.0879936       0.0001289     1
  139     0       0.0882632       0.0001328     1
  140     0       0.0885348       0.0001360     1
  141     0       0.0888126       0.0001364     1
  142     0       0.0890976       0.0001390     1
  143     0       0.0893869       0.0001432     1
  144     0       0.0896794       0.0001451     1
  145     0       0.0899808       0.0001469     1
  146     0       0.0902901       0.0001510     1
  147     0       0.0906032       0.0001541     1
  148     0       0.0909199       0.0001568     1
  149     0       0.0912479       0.0001603     1
  150     0       0.0915840       0.0001638     1
  151     0       0.0919224       0.0001666     1
  152     0       0.0922663       0.0001699     1
  153     0       0.0926227       0.0001737     1
  154     0       0.0929859       0.0001767     1
  155     0       0.0933506       0.0001793     1
  156     0       0.0937212       0.0001832     1
  157     0       0.0941040       0.0001863     1
  158     0       0.0944920       0.0001887     1
  159     0       0.0948800       0.0001915     1
  160     0       0.0952758       0.0001948     1
  161     0       0.0956824       0.0001970     1
  162     0       0.0960914       0.0001981     1
  163     0       0.0965009       0.0002013     1
  164     0       0.0969180       0.0002043     1
  165     0       0.0973432       0.0002048     1
  166     0       0.0977692       0.0002069     1
  167     0       0.0981957       0.0002092     1
  168     0       0.0986274       0.0002096     1
  169     0       0.0990640       0.0002103     1
  170     0       0.0995015       0.0002119     1
  171     0       0.0999376       0.0002119     1
  172     0       0.1003766       0.0002123     1
  173     0       0.1008187       0.0002130     1
  174     0       0.1012597       0.0002123     1
  175     0       0.1016980       0.0002114     1
  176     0       0.1021362       0.0002118     1
  177     0       0.1025758       0.0002111     1
  178     0       0.1030125       0.0002091     1
  179     0       0.1034447       0.0002081     1
  180     0       0.1038754       0.0002068     1
  181     0       0.1043035       0.0002044     1
  182     0       0.1047273       0.0002019     1
  183     0       0.1051455       0.0002002     1
  184     0       0.1055595       0.0001976     1
  185     0       0.1059685       0.0001942     1
  186     0       0.1063708       0.0001912     1
  187     0       0.1067669       0.0001878     1
  188     0       0.1071557       0.0001841     1
  189     0       0.1075368       0.0001801     1
  190     0       0.1079097       0.0001758     1
  191     0       0.1082741       0.0001717     1
  192     0       0.1086295       0.0001666     1
  193     0       0.1089747       0.0001616     1
  194     0       0.1093099       0.0001563     1
  195     0       0.1096336       0.0001507     1
  196     0       0.1099462       0.0001450     1
  197     0       0.1102467       0.0001392     1
  198     0       0.1105347       0.0001331     1
  199     0       0.1108098       0.0001262     1
  200     0       0.1110717       0.0001197     1
  201     0       0.1113188       0.0001127     1
  202     0       0.1115516       0.0001053     1
  203     0       0.1117687       0.0000973     1
  204     0       0.1119709       0.0000900     1
  205     0       0.1121569       0.0000821     1
  206     0       0.1123253       0.0000738     1
  207     0       0.1124772       0.0000652     1
  208     0       0.1126124       0.0000564     1
  209     0       0.1127302       0.0000476     1
  210     0       0.1128288       0.0000391     1
  211     0       0.1129093       0.0000302     1
  212     0       0.1129712       0.0000210     1
  213     0       0.1130145       0.0000117     1
  214     0       0.1130384       0.0000024     1
  215     0       0.1130437      -0.0000068     1
  216     0       0.1130295      -0.0000161     1
  217     0       0.1129955      -0.0000253     1
  218     0       0.1129421      -0.0000345     1
  219     0       0.1128692      -0.0000439     1
  220     0       0.1127773      -0.0000530     1
  221     0       0.1126661      -0.0000624     1
  222     0       0.1125354      -0.0000720     1
  223     0       0.1123860      -0.0000808     1
  224     0       0.1122175      -0.0000899     1
  225     0       0.1120302      -0.0000990     1
  226     0       0.1118251      -0.0001079     1
  227     0       0.1116017      -0.0001168     1
  228     0       0.1113608      -0.0001256     1
  229     0       0.1111015      -0.0001340     1
  230     0       0.1108257      -0.0001422     1
  231     0       0.1105332      -0.0001502     1
  232     0       0.1102243      -0.0001578     1
  233     0       0.1098990      -0.0001659     1
  234     0       0.1095579      -0.0001733     1
  235     0       0.1092014      -0.0001807     1
  236     0       0.1088308      -0.0001879     1
  237     0       0.1084453      -0.0001951     1
  238     0       0.1080459      -0.0002015     1
  239     0       0.1076325      -0.0002086     1
  240     0       0.1072063      -0.0002151     1
  241     0       0.1067657      -0.0002212     1
  242     0       0.1063141      -0.0002274     1
  243     0       0.1058503      -0.0002332     1
  244     0       0.1053750      -0.0002386     1
  245     0       0.1048883      -0.0002439     1
  246     0       0.1043906      -0.0002494     1
  247     0       0.1038829      -0.0002546     1
  248     0       0.1033646      -0.0002595     1
  249     0       0.1028372      -0.0002643     1
  250     0       0.1022999      -0.0002686     1
  251     0       0.1017539      -0.0002731     1
  252     0       0.1011988      -0.0002772     1
  253     0       0.1006358      -0.0002814     1
  254     0       0.1000638      -0.0002855     1
  255     0       0.0994853      -0.0002893     1
  256     0       0.0988980      -0.0002926     1
  257     0       0.0983042      -0.0002964     1
  258     0       0.0977025      -0.0003000     1
  259     0       0.0970949      -0.0003033     1
  260     0       0.0964796      -0.0003071     1
  261     0       0.0958580      -0.0003105     1
  262     0       0.0952302      -0.0003137     1
  263     0       0.0945960      -0.0003167     1
  264     0       0.0939555      -0.0003194     1
  265     0       0.0933087      -0.0003222     1
  266     0       0.0926567      -0.0003249     1
  267     0       0.0919988      -0.0003283     1
  268     0       0.0913354      -0.0003312     1
  269     0       0.0906668      -0.0003341     1
  270     0       0.0899923      -0.0003369     1
  271     0       0.0893138      -0.0003393     1
  272     0       0.0886297      -0.0003420     1
  273     0       0.0879410      -0.0003441     1
  274     0       0.0872484      -0.0003466     1
  275     0       0.0865513      -0.0003486     1
  276     0       0.0858502      -0.0003505     1
  277     0       0.0851445      -0.0003524     1
  278     0       0.0844356      -0.0003542     1
  279     0       0.0837236      -0.0003558     1
  280     0       0.0830080      -0.0003577     1
  281     0       0.0822902      -0.0003594     1
  282     0       0.0815694      -0.0003605     1
  283     0       0.0808465      -0.0003617     1
  284     0       0.0801211      -0.0003628     1
  285     0       0.0793945      -0.0003635     1
  286     0       0.0786659      -0.0003641     1
  287     0       0.0779363      -0.0003646     1
  288     0       0.0772061      -0.0003653     1
  289     0       0.0764750      -0.0003656     1
  290     0       0.0757439      -0.0003656     1
  291     0       0.0750128      -0.0003658     1
  292     0       0.0742823      -0.0003655     1
  293     0       0.0735524      -0.0003651     1
  294     0       0.0728245      -0.0003645     1
  295     0       0.0720980      -0.0003635     1
  296     0       0.0713740      -0.0003627     1
  297     0       0.0706522      -0.0003613     1
  298     0       0.0699341      -0.0003600     1
  299     0       0.0692193      -0.0003581     1
  300     0       0.0685089      -0.0003561     1
  301     0       0.0678023      -0.0003539     1
  302     0       0.0671009      -0.0003513     1
  303     0       0.0664042      -0.0003487     1
  304     0       0.0657129      -0.0003457     1
  305     0       0.0650277      -0.0003423     1
  306     0       0.0643491      -0.0003390     1
  307     0       0.0636774      -0.0003359     1
  308     0       0.0630125      -0.0003325     1
  309     0       0.0623548      -0.0003295     1
  310     0       0.0617044      -0.0003256     1
  311     0       0.0610624      -0.0003218     1
  312     0       0.0604288      -0.0003174     1
  313     0       0.0598034      -0.0003131     1
  314     0       0.0591874      -0.0003088     1
  315     0       0.0585804      -0.0003042     1
  316     0       0.0579829      -0.0002993     1
  317     0       0.0573956      -0.0002945     1
  318     0       0.0568174      -0.0002897     1
  319     0       0.0562493      -0.0002850     1
  320     0       0.0556916      -0.0002799     1
  321     0       0.0551443      -0.0002748     1
  322     0       0.0546070      -0.0002698     1
  323     0       0.0540799      -0.0002648     1
  324     0       0.0535634      -0.0002597     1
  325     0       0.0530585      -0.0002544     1
  326     0       0.0525638      -0.0002490     1
  327     0       0.0520804      -0.0002434     1
  328     0       0.0516072      -0.0002379     1
  329     0       0.0511450      -0.0002328     1
  330     0       0.0506937      -0.0002276     1
  331     0       0.0502534      -0.0002221     1
  332     0       0.0498238      -0.0002172     1
  333     0       0.0494044      -0.0002123     1
  334     0       0.0489953      -0.0002071     1
  335     0       0.0485965      -0.0002020     1
  336     0       0.0482086      -0.0001966     1
  337     0       0.0478307      -0.0001914     1
  338     0       0.0474639      -0.0001864     1
  339     0       0.0471065      -0.0001817     1
  340     0       0.0467594      -0.0001767     1
  341     0       0.0464217      -0.0001718     1
  342     0       0.0460943      -0.0001671     1
  343     0       0.0457756      -0.0001624     1
  344     0       0.0454664      -0.0001576     1
  345     0       0.0451661      -0.0001530     1
  346     0       0.0448754      -0.0001487     1
  347     0       0.0445934      -0.0001446     1
  348     0       0.0443202      -0.0001405     1
  349     0       0.0440550      -0.0001364     1
  350     0       0.0437983      -0.0001323     1
  351     0       0.0435496      -0.0001283     1
  352     0       0.0433087      -0.0001243     1
  353     0       0.0430760      -0.0001205     1
  354     0       0.0428511      -0.0001171     1
  355     0       0.0426336      -0.0001134     1
  356     0       0.0424231      -0.0001097     1
  357     0       0.0422199      -0.0001065     1
  358     0       0.0420226      -0.0001032     1
  359     0       0.0418327      -0.0001001     1
  360     0       0.0416489      -0.0000969     1
  361     0       0.0414718      -0.0000938     1
  362     0       0.0413007      -0.0000908     1
  363     0       0.0411359      -0.0000876     1
  364     0       0.0409765      -0.0000848     1
  365     0       0.0408238      -0.0000821     1
  366     0       0.0406752      -0.0000792     1
  367     0       0.0405329      -0.0000765     1
  368     0       0.0403952      -0.0000740     1
  369     0       0.0402629      -0.0000714     1
  370     0       0.0401349      -0.0000692     1
  371     0       0.0400122      -0.0000665     1
  372     0       0.0398943      -0.0000642     1
  373     0       0.0397807      -0.0000621     1
  374     0       0.0396713      -0.0000596     1
  375     0       0.0395660      -0.0000578     1
  376     0       0.0394652      -0.0000554     1
  377     0       0.0393679      -0.0000537     1
  378     0       0.0392745      -0.0000517     1
  379     0       0.0391848      -0.0000500     1
  380     0       0.0390991      -0.0000484     1
  381     0       0.0390163      -0.0000466     1
  382     0       0.0389372      -0.0000451     1
  383     0       0.0388608      -0.0000433     1
  384     0       0.0387883      -0.0000418     1
  385     0       0.0387185      -0.0000399     1
  386     0       0.0386518      -0.0000385     1
  387     0       0.0385887      -0.0000371     1
  388     0       0.0385277      -0.0000355     1
  389     0       0.0384697      -0.0000346     1
  390     0       0.0384143      -0.0000334     1
  391     0       0.0383612      -0.0000322     1
  392     0       0.0383109      -0.0000309     1
  393     0       0.0382628      -0.0000298     1
  394     0       0.0382169      -0.0000286     1
  395     0       0.0381736      -0.0000273     1
  396     0       0.0381325      -0.0000263     1
  397     0       0.0380933      -0.0000252     1
  398     0       0.0380563      -0.0000243     1
  399     0       0.0380216      -0.0000231     1
  400     0       0.0379889      -0.0000225     1
  401     0       0.0379577      -0.0000216     1
  402     0       0.0379286      -0.0000207     1
  403     0       0.0379015      -0.0000198     1
  404     0       0.0378756      -0.0000189     1
  405     0       0.0378520      -0.0000180     1
  406     0       0.0378298      -0.0000171     1
  407     0       0.0378100      -0.0000163     1
  408     0       0.0377913      -0.0000156     1
  409     0       0.0377743      -0.0000149     1
  410     0       0.0377588      -0.0000142     1
  411     0       0.0377455      -0.0000134     1
  412     0       0.0377334      -0.0000125     1
  413     0       0.0377230      -0.0000119     1
  414     0       0.0377143      -0.0000111     1
  415     0       0.0377065      -0.0000102     1
  416     0       0.0377007      -0.0000092     1
  417     0       0.0376960      -0.0000086     1
  418     0       0.0376934      -0.0000077     1
  419     0       0.0376920      -0.0000070     1
    0     1       0.0396551      -0.0000026     1
    1     1       0.0396645      -0.0000061     1
    2     1       0.0396782      -0.0000014     1
    3     1       0.0396944      -0.0000104     1
    4     1       0.0397199      -0.0000135     1
    5     1       0.0397532      -0.0000138     1
    6     1       0.0397868      -0.0000188     1
    7     1       0.0398274      -0.0000239     1
    8     1       0.0398792      -0.0000241     1
    9     1       0.0399341      -0.0000269     1
   10     1       0.0399922      -0.0000334     1
   11     1       0.0400624      -0.0000348     1
   12     1       0.0401379      -0.0000359     1
   13     1       0.0402150      -0.0000427     1
   14     1       0.0403038      -0.0000463     1
   15     1       0.0404006      -0.0000462     1
   16     1       0.0404980      -0.0000515     1
   17     1       0.0406059      -0.0000576     1
   18     1       0.0407246      -0.0000578     1
   19     1       0.0408438      -0.0000606     1
   20     1       0.0409691      -0.0000678     1
   21     1       0.0411097      -0.0000700     1
   22     1       0.0412526      -0.0000712     1
   23     1       0.0413990      -0.0000784     1
   24     1       0.0415627      -0.0000829     1
   25     1       0.0417316      -0.0000831     1
   26     1       0.0419001      -0.0000884     1
   27     1       0.0420845      -0.0000949     1
   28     1       0.0422817      -0.0000962     1
   29     1       0.0424749      -0.0000992     1
   30     1       0.0426797      -0.0001069     1
   31     1       0.0429053      -0.0001099     1
   32     1       0.0431273      -0.0001124     1
   33     1       0.0433534      -0.0001195     1
   34     1       0.0436058      -0.0001236     1
   35     1       0.0438609      -0.0001268     1
   36     1       0.0441115      -0.0001334     1
   37     1       0.0443894      -0.0001374     1
   38     1       0.0446787      -0.0001415     1
   39     1       0.0449592      -0.0001495     1
   40     1       0.0452606      -0.0001523     1
   41     1       0.0455829      -0.0001549     1
   42     1       0.0458957      -0.0001651     1
   43     1       0.0462228      -0.0001688     1
   44     1       0.0465752      -0.0001682     1
   45     1       0.0469246      -0.0001796     1
   46     1       0.0472810      -0.0001869     1
   47     1       0.0476618      -0.0001837     1
   48     1       0.0480466      -0.0001919     1
   49     1       0.0484364      -0.0002052     1
   50     1       0.0488471      -0.0002032     1
   51     1       0.0492651      -0.0002043     1
   52     1       0.0496892      -0.0002187     1
   53     1       0.0501293      -0.0002243     1
   54     1       0.0505807      -0.0002196     1
   55     1       0.0510368      -0.0002282     1
   56     1       0.0515074      -0.0002423     1
   57     1       0.0519913      -0.0002413     1
   58     1       0.0524792      -0.0002387     1
   59     1       0.0529771      -0.0002519     1
   60     1       0.0534923      -0.0002635     1
   61     1       0.0540140      -0.0002566     1
   62     1       0.0545378      -0.0002563     1
   63     1       0.0550766      -0.0002752     1
   64     1       0.0556312      -0.0002835     1
   65     1       0.0561858      -0.0002694     1
   66     1       0.0567415      -0.0002703     1
   67     1       0.0573159      -0.0002955     1
   68     1       0.0579043      -0.0003010     1
   69     1       0.0584864      -0.0002777     1
   70     1       0.0590646      -0.0002791     1
   71     1       0.0596657      -0.0003122     1
   72     1       0.0602815      -0.0003174     1
   73     1       0.0608843      -0.0002847     1
   74     1       0.0614761      -0.0002823     1
   75     1       0.0620928      -0.0003208     1
   76     1       0.0627264      -0.0003276     1
   77     1       0.0633422      -0.0002892     1
   78     1       0.0639399      -0.0002842     1
   79     1       0.0645611      -0.0003224     1
   80     1       0.0651958      -0.0003235     1
   81     1       0.0658105      -0.0002903     1
   82     1       0.0664106      -0.0002911     1
   83     1       0.0670242      -0.0003102     1
   84     1       0.0676390      -0.0003063     1
   85     1       0.0682421      -0.0002922     1
   86     1       0.0688380      -0.0002922     1
   87     1       0.0694273      -0.0002861     1
   88     1       0.0700071      -0.0002835     1
   89     1       0.0706007      -0.0003088     1
   90     1       0.0711705      -0.0002575     1
   91     1       0.0717050      -0.0002512     1
   92     1       0.0722828      -0.0003289     1
   93     1       0.0728341      -0.0002270     1
   94     1       0.0733288      -0.0002364     1
   95     1       0.0738834      -0.0003238     1
   96     1       0.0743969      -0.0001897     1
   97     1       0.0748661      -0.0002482     1
   98     1       0.0753891      -0.0002899     1
   99     1       0.0758579      -0.0001716     1
  100     1       0.0763052      -0.0002490     1
  101     1       0.0767842      -0.0002429     1
  102     1       0.0772159      -0.0001804     1
  103     1       0.0776401      -0.0002277     1
  104     1       0.0780701      -0.0002067     1
  105     1       0.0784701      -0.0001850     1
  106     1       0.0788655      -0.0002008     1
  107     1       0.0792541      -0.0001846     1
  108     1       0.0796225      -0.0001771     1
  109     1       0.0799862      -0.0001809     1
  110     1       0.0803406      -0.0001686     1
  111     1       0.0806799      -0.0001653     1
  112     1       0.0810129      -0.0001642     1
  113     1       0.0813387      -0.0001557     1
  114     1       0.0816516      -0.0001515     1
  115     1       0.0819586      -0.0001516     1
  116     1       0.0822600      -0.0001448     1
  117     1       0.0825515      -0.0001392     1
  118     1       0.0828358      -0.0001410     1
  119     1       0.0831170      -0.0001367     1
  120     1       0.0833908      -0.0001297     1
  121     1       0.0836594      -0.0001323     1
  122     1       0.0839252      -0.0001311     1
  123     1       0.0841864      -0.0001240     1
  124     1       0.0844444      -0.0001256     1
  125     1       0.0846996      -0.0001261     1
  126     1       0.0849516      -0.0001220     1
  127     1       0.0852031      -0.0001219     1
  128     1       0.0854535      -0.0001228     1
  129     1       0.0857013      -0.0001224     1
  130     1       0.0859495      -0.0001220     1
  131     1       0.0862004      -0.0001215     1
  132     1       0.0864495      -0.0001230     1
  133     1       0.0866996      -0.0001241     1
  134     1       0.0869534      -0.0001235     1
  135     1       0.0872097      -0.0001243     1
  136     1       0.0874666      -0.0001277     1
  137     1       0.0877272      -0.0001288     1
  138     1       0.0879937      -0.0001291     1
  139     1       0.0882633      -0.0001326     1
  140     1       0.0885348      -0.0001355     1
  141     1       0.0888127      -0.0001360     1
  142     1       0.0890979      -0.0001391     1
  143     1       0.0893870      -0.0001431     1
  144     1       0.0896799      -0.0001453     1
  145     1       0.0899809      -0.0001474     1
  146     1       0.0902904      -0.0001517     1
  147     1       0.0906033      -0.0001551     1
  148     1       0.0909202      -0.0001572     1
  149     1       0.0912480      -0.0001608     1
  150     1       0.0915841      -0.0001647     1
  151     1       0.0919224      -0.0001676     1
  152     1       0.0922663      -0.0001709     1
  153     1       0.0926225      -0.0001745     1
  154     1       0.0929857      -0.0001776     1
  155     1       0.0933504      -0.0001803     1
  156     1       0.0937212      -0.0001838     1
  157     1       0.0941043      -0.0001872     1
  158     1       0.0944920      -0.0001894     1
  159     1       0.0948802      -0.0001922     1
  160     1       0.0952759      -0.0001960     1
  161     1       0.0956824      -0.0001980     1
  162     1       0.0960918      -0.0001991     1
  163     1       0.0965013      -0.0002024     1
  164     1       0.0969182      -0.0002051     1
  165     1       0.0973436      -0.0002053     1
  166     1       0.0977691      -0.0002070     1
  167     1       0.0981958      -0.0002100     1
  168     1       0.0986276      -0.0002101     1
  169     1       0.0990643      -0.0002110     1
  170     1       0.0995019      -0.0002128     1
  171     1       0.0999380      -0.0002126     1
  172     1       0.1003767      -0.0002128     1
  173     1       0.1008183      -0.0002141     1
  174     1       0.1012597      -0.0002132     1
  175     1       0.1016979      -0.0002123     1
  176     1       0.1021361      -0.0002125     1
  177     1       0.1025759      -0.0002117     1