VARIABLES = X, Y, u, v, solid
ZONE I= 420 , J= 160, F=POINT 
    0     0       0.0405072      -0.0000000     1
    1     0       0.0396605       0.0000032     1
    2     0       0.0396682       0.0000003     1
    3     0       0.0396781       0.0000102     1
    4     0       0.0396982       0.0000124     1
    5     0       0.0397267       0.0000122     1
    6     0       0.0397570       0.0000175     1
    7     0       0.0397938       0.0000224     1
    8     0       0.0398413       0.0000226     1
    9     0       0.0398916       0.0000255     1
   10     0       0.0399454       0.0000318     1
   11     0       0.0400117       0.0000334     1
   12     0       0.0400837       0.0000341     1
   13     0       0.0401572       0.0000406     1
   14     0       0.0402423       0.0000448     1
   15     0       0.0403359       0.0000450     1
   16     0       0.0404303       0.0000500     1
   17     0       0.0405345       0.0000564     1
   18     0       0.0406502       0.0000565     1
   19     0       0.0407665       0.0000595     1
   20     0       0.0408899       0.0000668     1
   21     0       0.0410274       0.0000692     1
   22     0       0.0411681       0.0000698     1
   23     0       0.0413120       0.0000768     1
   24     0       0.0414728       0.0000815     1
   25     0       0.0416401       0.0000817     1
   26     0       0.0418067       0.0000876     1
   27     0       0.0419892       0.0000944     1
   28     0       0.0421844       0.0000955     1
   29     0       0.0423759       0.0000988     1
   30     0       0.0425793       0.0001068     1
   31     0       0.0428031       0.0001095     1
   32     0       0.0430243       0.0001120     1
   33     0       0.0432490       0.0001189     1
   34     0       0.0435007       0.0001230     1
   35     0       0.0437540       0.0001261     1
   36     0       0.0440038       0.0001330     1
   37     0       0.0442798       0.0001369     1
   38     0       0.0445684       0.0001408     1
   39     0       0.0448473       0.0001483     1
   40     0       0.0451480       0.0001513     1
   41     0       0.0454694       0.0001539     1
   42     0       0.0457823       0.0001646     1
   43     0       0.0461087       0.0001682     1
   44     0       0.0464604       0.0001675     1
   45     0       0.0468094       0.0001788     1
   46     0       0.0471663       0.0001865     1
   47     0       0.0475464       0.0001832     1
   48     0       0.0479311       0.0001915     1
   49     0       0.0483207       0.0002050     1
   50     0       0.0487304       0.0002033     1
   51     0       0.0491492       0.0002042     1
   52     0       0.0495730       0.0002190     1
   53     0       0.0500135       0.0002244     1
   54     0       0.0504651       0.0002202     1
   55     0       0.0509208       0.0002282     1
   56     0       0.0513917       0.0002420     1
   57     0       0.0518756       0.0002412     1
   58     0       0.0523642       0.0002387     1
   59     0       0.0528625       0.0002522     1
   60     0       0.0533780       0.0002638     1
   61     0       0.0538994       0.0002573     1
   62     0       0.0544236       0.0002566     1
   63     0       0.0549631       0.0002753     1
   64     0       0.0555179       0.0002835     1
   65     0       0.0560731       0.0002695     1
   66     0       0.0566291       0.0002709     1
   67     0       0.0572044       0.0002962     1
   68     0       0.0577939       0.0003013     1
   69     0       0.0583769       0.0002782     1
   70     0       0.0589556       0.0002792     1
   71     0       0.0595574       0.0003126     1
   72     0       0.0601748       0.0003176     1
   73     0       0.0607787       0.0002852     1
   74     0       0.0613713       0.0002828     1
   75     0       0.0619885       0.0003216     1
   76     0       0.0626231       0.0003280     1
   77     0       0.0632393       0.0002893     1
   78     0       0.0638384       0.0002843     1
   79     0       0.0644598       0.0003230     1
   80     0       0.0650950       0.0003236     1
   81     0       0.0657105       0.0002907     1
   82     0       0.0663120       0.0002918     1
   83     0       0.0669264       0.0003108     1
   84     0       0.0675420       0.0003070     1
   85     0       0.0681461       0.0002928     1
   86     0       0.0687430       0.0002936     1
   87     0       0.0693337       0.0002873     1
   88     0       0.0699146       0.0002844     1
   89     0       0.0705092       0.0003098     1
   90     0       0.0710800       0.0002585     1
   91     0       0.0716154       0.0002517     1
   92     0       0.0721944       0.0003299     1
   93     0       0.0727469       0.0002280     1
   94     0       0.0732426       0.0002373     1
   95     0       0.0737979       0.0003250     1
   96     0       0.0743122       0.0001902     1
   97     0       0.0747821       0.0002484     1
   98     0       0.0753055       0.0002908     1
   99     0       0.0757757       0.0001723     1
  100     0       0.0762235       0.0002493     1
  101     0       0.0767036       0.0002437     1
  102     0       0.0771365       0.0001809     1
  103     0       0.0775616       0.0002279     1
  104     0       0.0779927       0.0002070     1
  105     0       0.0783936       0.0001856     1
  106     0       0.0787899       0.0002012     1
  107     0       0.0791793       0.0001851     1
  108     0       0.0795487       0.0001777     1
  109     0       0.0799138       0.0001813     1
  110     0       0.0802691       0.0001691     1
  111     0       0.0806095       0.0001654     1
  112     0       0.0809437       0.0001645     1
  113     0       0.0812697       0.0001558     1
  114     0       0.0815835       0.0001516     1
  115     0       0.0818906       0.0001518     1
  116     0       0.0821921       0.0001457     1
  117     0       0.0824846       0.0001402     1
  118     0       0.0827698       0.0001418     1
  119     0       0.0830522       0.0001374     1
  120     0       0.0833267       0.0001304     1
  121     0       0.0835958       0.0001327     1
  122     0       0.0838621       0.0001315     1
  123     0       0.0841235       0.0001246     1
  124     0       0.0843821       0.0001262     1
  125     0       0.0846385       0.0001270     1
  126     0       0.0848919       0.0001227     1
  127     0       0.0851441       0.0001225     1
  128     0       0.0853951       0.0001232     1
  129     0       0.0856440       0.0001226     1
  130     0       0.0858929       0.0001222     1
  131     0       0.0861441       0.0001221     1
  132     0       0.0863946       0.0001235     1
  133     0       0.0866455       0.0001247     1
  134     0       0.0869001       0.0001243     1
  135     0       0.0871575       0.0001256     1
  136     0       0.0874144       0.0001288     1
  137     0       0.0876762       0.0001295     1
  138     0       0.0879428       0.0001297     1
  139     0       0.0882131       0.0001332     1
  140     0       0.0884858       0.0001362     1
  141     0       0.0887642       0.0001367     1
  142     0       0.0890503       0.0001398     1
  143     0       0.0893403       0.0001442     1
  144     0       0.0896334       0.0001458     1
  145     0       0.0899353       0.0001478     1
  146     0       0.0902452       0.0001520     1
  147     0       0.0905587       0.0001553     1
  148     0       0.0908767       0.0001574     1
  149     0       0.0912055       0.0001607     1
  150     0       0.0915427       0.0001647     1
  151     0       0.0918817       0.0001677     1
  152     0       0.0922271       0.0001710     1
  153     0       0.0925834       0.0001748     1
  154     0       0.0929480       0.0001778     1
  155     0       0.0933132       0.0001808     1
  156     0       0.0936854       0.0001842     1
  157     0       0.0940689       0.0001873     1
  158     0       0.0944582       0.0001899     1
  159     0       0.0948475       0.0001924     1
  160     0       0.0952445       0.0001957     1
  161     0       0.0956519       0.0001977     1
  162     0       0.0960621       0.0001991     1
  163     0       0.0964724       0.0002018     1
  164     0       0.0968903       0.0002052     1
  165     0       0.0973157       0.0002054     1
  166     0       0.0977429       0.0002074     1
  167     0       0.0981700       0.0002097     1
  168     0       0.0986024       0.0002100     1
  169     0       0.0990393       0.0002110     1
  170     0       0.0994774       0.0002129     1
  171     0       0.0999144       0.0002129     1
  172     0       0.1003537       0.0002129     1
  173     0       0.1007966       0.0002140     1
  174     0       0.1012384       0.0002134     1
  175     0       0.1016771       0.0002125     1
  176     0       0.1021163       0.0002130     1
  177     0       0.1025566       0.0002125     1
  178     0       0.1029942       0.0002104     1
  179     0       0.1034269       0.0002093     1
  180     0       0.1038582       0.0002082     1
  181     0       0.1042869       0.0002061     1
  182     0       0.1047115       0.0002031     1
  183     0       0.1051307       0.0002015     1
  184     0       0.1055454       0.0001989     1
  185     0       0.1059548       0.0001956     1
  186     0       0.1063586       0.0001928     1
  187     0       0.1067553       0.0001900     1
  188     0       0.1071442       0.0001861     1
  189     0       0.1075260       0.0001819     1
  190     0       0.1078995       0.0001780     1
  191     0       0.1082645       0.0001732     1
  192     0       0.1086201       0.0001685     1
  193     0       0.1089659       0.0001635     1
  194     0       0.1093009       0.0001584     1
  195     0       0.1096258       0.0001526     1
  196     0       0.1099383       0.0001469     1
  197     0       0.1102393       0.0001409     1
  198     0       0.1105274       0.0001350     1
  199     0       0.1108025       0.0001280     1
  200     0       0.1110643       0.0001215     1
  201     0       0.1113126       0.0001146     1
  202     0       0.1115455       0.0001075     1
  203     0       0.1117634       0.0000998     1
  204     0       0.1119653       0.0000924     1
  205     0       0.1121521       0.0000841     1
  206     0       0.1123210       0.0000760     1
  207     0       0.1124741       0.0000673     1
  208     0       0.1126091       0.0000591     1
  209     0       0.1127271       0.0000496     1
  210     0       0.1128260       0.0000410     1
  211     0       0.1129071       0.0000320     1
  212     0       0.1129696       0.0000232     1
  213     0       0.1130131       0.0000138     1
  214     0       0.1130376       0.0000051     1
  215     0       0.1130427      -0.0000045     1
  216     0       0.1130283      -0.0000139     1
  217     0       0.1129941      -0.0000235     1
  218     0       0.1129410      -0.0000331     1
  219     0       0.1128682      -0.0000425     1
  220     0       0.1127757      -0.0000518     1
  221     0       0.1126639      -0.0000612     1
  222     0       0.1125325      -0.0000706     1
  223     0       0.1123826      -0.0000797     1
  224     0       0.1122133      -0.0000890     1
  225     0       0.1120258      -0.0000979     1
  226     0       0.1118190      -0.0001069     1
  227     0       0.1115945      -0.0001156     1
  228     0       0.1113517      -0.0001243     1
  229     0       0.1110918      -0.0001328     1
  230     0       0.1108144      -0.0001409     1
  231     0       0.1105198      -0.0001492     1
  232     0       0.1102086      -0.0001574     1
  233     0       0.1098818      -0.0001652     1
  234     0       0.1095387      -0.0001728     1
  235     0       0.1091803      -0.0001807     1
  236     0       0.1088067      -0.0001878     1
  237     0       0.1084190      -0.0001948     1
  238     0       0.1080173      -0.0002019     1
  239     0       0.1076015      -0.0002085     1
  240     0       0.1071720      -0.0002151     1
  241     0       0.1067297      -0.0002209     1
  242     0       0.1062748      -0.0002267     1
  243     0       0.1058082      -0.0002328     1
  244     0       0.1053295      -0.0002388     1
  245     0       0.1048395      -0.0002441     1
  246     0       0.1043389      -0.0002501     1
  247     0       0.1038274      -0.0002551     1
  248     0       0.1033055      -0.0002603     1
  249     0       0.1027742      -0.0002649     1
  250     0       0.1022329      -0.0002698     1
  251     0       0.1016831      -0.0002747     1
  252     0       0.1011243      -0.0002791     1
  253     0       0.1005569      -0.0002834     1
  254     0       0.0999811      -0.0002874     1
  255     0       0.0993971      -0.0002916     1
  256     0       0.0988059      -0.0002952     1
  257     0       0.0982067      -0.0002987     1
  258     0       0.0976007      -0.0003019     1
  259     0       0.0969875      -0.0003055     1
  260     0       0.0963683      -0.0003087     1
  261     0       0.0957422      -0.0003122     1
  262     0       0.0951094      -0.0003157     1
  263     0       0.0944699      -0.0003190     1
  264     0       0.0938246      -0.0003221     1
  265     0       0.0931731      -0.0003249     1
  266     0       0.0925174      -0.0003277     1
  267     0       0.0918553      -0.0003306     1
  268     0       0.0911869      -0.0003332     1
  269     0       0.0905134      -0.0003362     1
  270     0       0.0898349      -0.0003388     1
  271     0       0.0891513      -0.0003416     1
  272     0       0.0884629      -0.0003441     1
  273     0       0.0877698      -0.0003464     1
  274     0       0.0870723      -0.0003485     1
  275     0       0.0863708      -0.0003509     1
  276     0       0.0856654      -0.0003531     1
  277     0       0.0849561      -0.0003549     1
  278     0       0.0842430      -0.0003571     1
  279     0       0.0835267      -0.0003586     1
  280     0       0.0828075      -0.0003603     1
  281     0       0.0820857      -0.0003617     1
  282     0       0.0813609      -0.0003631     1
  283     0       0.0806340      -0.0003641     1
  284     0       0.0799054      -0.0003651     1
  285     0       0.0791750      -0.0003659     1
  286     0       0.0784429      -0.0003667     1
  287     0       0.0777102      -0.0003673     1
  288     0       0.0769766      -0.0003674     1
  289     0       0.0762430      -0.0003677     1
  290     0       0.0755090      -0.0003678     1
  291     0       0.0747760      -0.0003678     1
  292     0       0.0740433      -0.0003675     1
  293     0       0.0733115      -0.0003670     1
  294     0       0.0725813      -0.0003664     1
  295     0       0.0718533      -0.0003653     1
  296     0       0.0711278      -0.0003638     1
  297     0       0.0704045      -0.0003626     1
  298     0       0.0696850      -0.0003609     1
  299     0       0.0689691      -0.0003592     1
  300     0       0.0682574      -0.0003573     1
  301     0       0.0675501      -0.0003549     1
  302     0       0.0668473      -0.0003525     1
  303     0       0.0661505      -0.0003497     1
  304     0       0.0654590      -0.0003472     1
  305     0       0.0647737      -0.0003439     1
  306     0       0.0640949      -0.0003405     1
  307     0       0.0634232      -0.0003370     1
  308     0       0.0627583      -0.0003337     1
  309     0       0.0621008      -0.0003302     1
  310     0       0.0614511      -0.0003262     1
  311     0       0.0608097      -0.0003219     1
  312     0       0.0601767      -0.0003177     1
  313     0       0.0595528      -0.0003132     1
  314     0       0.0589373      -0.0003088     1
  315     0       0.0583312      -0.0003043     1
  316     0       0.0577350      -0.0002996     1
  317     0       0.0571487      -0.0002947     1
  318     0       0.0565720      -0.0002898     1
  319     0       0.0560058      -0.0002848     1
  320     0       0.0554494      -0.0002798     1
  321     0       0.0549037      -0.0002744     1
  322     0       0.0543680      -0.0002693     1
  323     0       0.0538432      -0.0002640     1
  324     0       0.0533287      -0.0002588     1
  325     0       0.0528248      -0.0002534     1
  326     0       0.0523322      -0.0002480     1
  327     0       0.0518500      -0.0002428     1
  328     0       0.0513792      -0.0002375     1
  329     0       0.0509188      -0.0002321     1
  330     0       0.0504694      -0.0002269     1
  331     0       0.0500312      -0.0002218     1
  332     0       0.0496031      -0.0002164     1
  333     0       0.0491855      -0.0002112     1
  334     0       0.0487785      -0.0002060     1
  335     0       0.0483825      -0.0002008     1
  336     0       0.0479964      -0.0001956     1
  337     0       0.0476209      -0.0001902     1
  338     0       0.0472556      -0.0001852     1
  339     0       0.0469006      -0.0001806     1
  340     0       0.0465549      -0.0001759     1
  341     0       0.0462195      -0.0001712     1
  342     0       0.0458936      -0.0001666     1
  343     0       0.0455766      -0.0001620     1
  344     0       0.0452699      -0.0001571     1
  345     0       0.0449716      -0.0001526     1
  346     0       0.0446829      -0.0001480     1
  347     0       0.0444024      -0.0001438     1
  348     0       0.0441309      -0.0001395     1
  349     0       0.0438678      -0.0001354     1
  350     0       0.0436130      -0.0001314     1
  351     0       0.0433665      -0.0001274     1
  352     0       0.0431272      -0.0001237     1
  353     0       0.0428960      -0.0001202     1
  354     0       0.0426722      -0.0001161     1
  355     0       0.0424562      -0.0001124     1
  356     0       0.0422468      -0.0001089     1
  357     0       0.0420449      -0.0001055     1
  358     0       0.0418496      -0.0001019     1
  359     0       0.0416614      -0.0000988     1
  360     0       0.0414797      -0.0000959     1
  361     0       0.0413037      -0.0000928     1
  362     0       0.0411343      -0.0000899     1
  363     0       0.0409706      -0.0000868     1
  364     0       0.0408131      -0.0000838     1
  365     0       0.0406605      -0.0000811     1
  366     0       0.0405138      -0.0000786     1
  367     0       0.0403724      -0.0000758     1
  368     0       0.0402362      -0.0000733     1
  369     0       0.0401047      -0.0000708     1
  370     0       0.0399780      -0.0000686     1
  371     0       0.0398560      -0.0000663     1
  372     0       0.0397393      -0.0000642     1
  373     0       0.0396266      -0.0000622     1
  374     0       0.0395187      -0.0000600     1
  375     0       0.0394140      -0.0000581     1
  376     0       0.0393140      -0.0000560     1
  377     0       0.0392171      -0.0000536     1
  378     0       0.0391255      -0.0000519     1
  379     0       0.0390358      -0.0000501     1
  380     0       0.0389514      -0.0000487     1
  381     0       0.0388687      -0.0000470     1
  382     0       0.0387909      -0.0000451     1
  383     0       0.0387151      -0.0000435     1
  384     0       0.0386436      -0.0000418     1
  385     0       0.0385745      -0.0000402     1
  386     0       0.0385093      -0.0000386     1
  387     0       0.0384459      -0.0000374     1
  388     0       0.0383858      -0.0000357     1
  389     0       0.0383279      -0.0000344     1
  390     0       0.0382734      -0.0000332     1
  391     0       0.0382208      -0.0000318     1
  392     0       0.0381714      -0.0000310     1
  393     0       0.0381235      -0.0000296     1
  394     0       0.0380784      -0.0000287     1
  395     0       0.0380351      -0.0000274     1
  396     0       0.0379942      -0.0000264     1
  397     0       0.0379557      -0.0000254     1
  398     0       0.0379192      -0.0000244     1
  399     0       0.0378848      -0.0000235     1
  400     0       0.0378521      -0.0000226     1
  401     0       0.0378214      -0.0000219     1
  402     0       0.0377930      -0.0000209     1
  403     0       0.0377657      -0.0000199     1
  404     0       0.0377407      -0.0000188     1
  405     0       0.0377167      -0.0000180     1
  406     0       0.0376950      -0.0000172     1
  407     0       0.0376750      -0.0000162     1
  408     0       0.0376569      -0.0000154     1
  409     0       0.0376402      -0.0000143     1
  410     0       0.0376248      -0.0000137     1
  411     0       0.0376112      -0.0000129     1
  412     0       0.0375996      -0.0000120     1
  413     0       0.0375887      -0.0000116     1
  414     0       0.0375800      -0.0000108     1
  415     0       0.0375727      -0.0000099     1
  416     0       0.0375674      -0.0000090     1
  417     0       0.0375629      -0.0000085     1
  418     0       0.0375599      -0.0000076     1
  419     0       0.0375585      -0.0000070     1
    0     1       0.0405436       0.0000000     1
    1     1       0.0396605      -0.0000033     1
    2     1       0.0396681      -0.0000005     1
    3     1       0.0396777      -0.0000103     1
    4     1       0.0396980      -0.0000122     1
    5     1       0.0397267      -0.0000121     1
    6     1       0.0397570      -0.0000177     1
    7     1       0.0397937      -0.0000225     1
    8     1       0.0398413      -0.0000223     1
    9     1       0.0398914      -0.0000256     1
   10     1       0.0399454      -0.0000321     1
   11     1       0.0400117      -0.0000338     1
   12     1       0.0400837      -0.0000346     1
   13     1       0.0401571      -0.0000412     1
   14     1       0.0402423      -0.0000454     1
   15     1       0.0403360      -0.0000452     1
   16     1       0.0404306      -0.0000505     1
   17     1       0.0405345      -0.0000564     1
   18     1       0.0406503      -0.0000565     1
   19     1       0.0407662      -0.0000594     1
   20     1       0.0408898      -0.0000666     1
   21     1       0.0410276      -0.0000690     1
   22     1       0.0411682      -0.0000701     1
   23     1       0.0413121      -0.0000776     1
   24     1       0.0414726      -0.0000818     1
   25     1       0.0416402      -0.0000822     1
   26     1       0.0418065      -0.0000876     1
   27     1       0.0419893      -0.0000945     1
   28     1       0.0421849      -0.0000960     1
   29     1       0.0423759      -0.0000992     1
   30     1       0.0425795      -0.0001067     1
   31     1       0.0428033      -0.0001097     1
   32     1       0.0430241      -0.0001120     1
   33     1       0.0432488      -0.0001193     1
   34     1       0.0435007      -0.0001236     1
   35     1       0.0437539      -0.0001266     1
   36     1       0.0440038      -0.0001331     1
   37     1       0.0442796      -0.0001371     1
   38     1       0.0445685      -0.0001407     1
   39     1       0.0448474      -0.0001484     1
   40     1       0.0451480      -0.0001518     1
   41     1       0.0454695      -0.0001542     1
   42     1       0.0457820      -0.0001646     1
   43     1       0.0461087      -0.0001687     1
   44     1       0.0464606      -0.0001681     1
   45     1       0.0468094      -0.0001799     1
   46     1       0.0471661      -0.0001874     1
   47     1       0.0475466      -0.0001838     1
   48     1       0.0479309      -0.0001918     1
   49     1       0.0483208      -0.0002050     1
   50     1       0.0487304      -0.0002030     1
   51     1       0.0491491      -0.0002041     1
   52     1       0.0495728      -0.0002185     1
   53     1       0.0500137      -0.0002246     1
   54     1       0.0504649      -0.0002200     1
   55     1       0.0509208      -0.0002285     1
   56     1       0.0513914      -0.0002426     1
   57     1       0.0518756      -0.0002418     1
   58     1       0.0523639      -0.0002390     1
   59     1       0.0528624      -0.0002524     1
   60     1       0.0533781      -0.0002637     1
   61     1       0.0538994      -0.0002572     1
   62     1       0.0544239      -0.0002569     1
   63     1       0.0549633      -0.0002754     1
   64     1       0.0555180      -0.0002837     1
   65     1       0.0560734      -0.0002698     1
   66     1       0.0566293      -0.0002714     1
   67     1       0.0572044      -0.0002965     1
   68     1       0.0577938      -0.0003016     1
   69     1       0.0583763      -0.0002784     1
   70     1       0.0589555      -0.0002798     1
   71     1       0.0595575      -0.0003125     1
   72     1       0.0601749      -0.0003175     1
   73     1       0.0607787      -0.0002848     1
   74     1       0.0613715      -0.0002827     1
   75     1       0.0619887      -0.0003214     1
   76     1       0.0626230      -0.0003279     1
   77     1       0.0632390      -0.0002895     1
   78     1       0.0638381      -0.0002843     1
   79     1       0.0644599      -0.0003229     1
   80     1       0.0650952      -0.0003237     1
   81     1       0.0657104      -0.0002908     1
   82     1       0.0663118      -0.0002918     1
   83     1       0.0669262      -0.0003109     1
   84     1       0.0675419      -0.0003071     1
   85     1       0.0681463      -0.0002928     1
   86     1       0.0687431      -0.0002930     1
   87     1       0.0693338      -0.0002872     1
   88     1       0.0699145      -0.0002846     1
   89     1       0.0705093      -0.0003100     1
   90     1       0.0710802      -0.0002585     1
   91     1       0.0716156      -0.0002519     1
   92     1       0.0721946      -0.0003296     1
   93     1       0.0727471      -0.0002278     1
   94     1       0.0732428      -0.0002368     1
   95     1       0.0737979      -0.0003248     1
   96     1       0.0743124      -0.0001902     1
   97     1       0.0747823      -0.0002483     1
   98     1       0.0753059      -0.0002906     1
   99     1       0.0757758      -0.0001717     1
  100     1       0.0762236      -0.0002493     1
  101     1       0.0767038      -0.0002431     1
  102     1       0.0771366      -0.0001800     1
  103     1       0.0775615      -0.0002273     1
  104     1       0.0779925      -0.0002068     1
  105     1       0.0783933      -0.0001855     1
  106     1       0.0787900      -0.0002013     1
  107     1       0.0791794      -0.0001853     1
  108     1       0.0795487      -0.0001774     1
  109     1       0.0799136      -0.0001809     1
  110     1       0.0802690      -0.0001685     1
  111     1       0.0806096      -0.0001651     1
  112     1       0.0809433      -0.0001644     1
  113     1       0.0812697      -0.0001558     1
  114     1       0.0815836      -0.0001517     1
  115     1       0.0818908      -0.0001520     1
  116     1       0.0821924      -0.0001451     1
  117     1       0.0824848      -0.0001393     1
  118     1       0.0827701      -0.0001410     1
  119     1       0.0830520      -0.0001367     1
  120     1       0.0833268      -0.0001301     1
  121     1       0.0835958      -0.0001326     1
  122     1       0.0838621      -0.0001314     1
  123     1       0.0841234      -0.0001243     1
  124     1       0.0843820      -0.0001262     1
  125     1       0.0846386      -0.0001265     1
  126     1       0.0848914      -0.0001228     1
  127     1       0.0851442      -0.0001222     1
  128     1       0.0853952      -0.0001232     1
  129     1       0.0856440      -0.0001226     1
  130     1       0.0858931      -0.0001218     1
  131     1       0.0861446      -0.0001217     1
  132     1       0.0863947      -0.0001231     1
  133     1       0.0866456      -0.0001242     1
  134     1       0.0869003      -0.0001233     1
  135     1       0.0871574      -0.0001243     1
  136     1       0.0874146      -0.0001273     1
  137     1       0.0876759      -0.0001287     1
  138     1       0.0879427      -0.0001293     1
  139     1       0.0882130      -0.0001328     1
  140     1       0.0884855      -0.0001357     1
  141     1       0.0887645      -0.0001363     1
  142     1       0.0890501      -0.0001389     1
  143     1       0.0893404      -0.0001432     1
  144     1       0.0896338      -0.0001449     1
  145     1       0.0899352      -0.0001469     1
  146     1       0.0902452      -0.0001510     1
  147     1       0.0905586      -0.0001546     1
  148     1       0.0908769      -0.0001568     1
  149     1       0.0912051      -0.0001609     1
  150     1       0.0915427      -0.0001645     1
  151     1       0.0918819      -0.0001676     1
  152     1       0.0922272      -0.0001702     1
  153     1       0.0925837      -0.0001739     1
  154     1       0.0929479      -0.0001768     1
  155     1       0.0933132      -0.0001796     1
  156     1       0.0936853      -0.0001833     1
  157     1       0.0940691      -0.0001868     1
  158     1       0.0944587      -0.0001889     1
  159     1       0.0948475      -0.0001916     1
  160     1       0.0952445      -0.0001952     1
  161     1       0.0956519      -0.0001972     1
  162     1       0.0960620      -0.0001986     1
  163     1       0.0964722      -0.0002017     1
  164     1       0.0968900      -0.0002044     1
  165     1       0.0973159      -0.0002048     1
  166     1       0.0977426      -0.0002062     1
  167     1       0.0981699      -0.0002093     1
  168     1       0.0986022      -0.0002097     1
  169     1       0.0990394      -0.0002103     1
  170     1       0.0994775      -0.0002117     1
  171     1       0.0999145      -0.0002115     1
  172     1       0.1003538      -0.0002117     1
  173     1       0.1007967      -0.0002127     1
  174     1       0.1012383      -0.0002123     1
  175     1       0.1016773      -0.0002115     1
  176     1       0.1021165      -0.0002116     1
  177     1       0.1025568      -0.0002108     1